                         Program Version 4.2.0 -  RELEASE  -
|  1> ! wB97X-D3BJ def2-TZVP SP Grid4 TightSCF
|  2>
|  3> %pal
|  4>     nprocs 4
|  5> end
|  6>
|  7> *xyz -1 1
|  8> C  0.836952 -0.019153  2.077471
|  9> O  0.816481 -1.184205  2.021337
| 10> O  0.972223  1.135893  2.019608
| 11> B  0.280544  0.058858  5.719612
| 12> H -0.405188 -0.985318  5.726270
| 13> H  0.785256  0.244548  6.839614
| 14> H -0.458235  1.042131  5.456374
| 15> H  1.173188 -0.032420  4.855721
| 16> O -1.509055  0.062905  3.235314
| 17> H -1.388147 -0.847564  3.541513
| 18> H -1.104019  0.524324  4.007167
| 19> *
| 20>
| 21>                          ****END OF INPUT****

CARTESIAN COORDINATES (ANGSTROEM)
---------------------------------
  C      0.836952   -0.019153    2.077471
  O      0.816481   -1.184205    2.021337
  O      0.972223    1.135893    2.019608
  B      0.280544    0.058858    5.719612
  H     -0.405188   -0.985318    5.726270
  H      0.785256    0.244548    6.839614
  H     -0.458235    1.042131    5.456374
  H      1.173188   -0.032420    4.855721
  O     -1.509055    0.062905    3.235314
  H     -1.388147   -0.847564    3.541513
  H     -1.104019    0.524324    4.007167

 Total Charge           Charge          ....   -1
 Multiplicity           Mult            ....    1
 Number of Electrons    NEL             ....   42
 Basis Dimension        Dim             ....  191

ORBITAL ENERGIES
----------------

  NO   OCC          E(Eh)            E(eV)
   0   2.0000     -19.146211      -520.9949
   1   2.0000     -19.145902      -520.9865
   2   2.0000     -19.049249      -518.3564
   3   2.0000     -10.319519      -280.8084
   4   2.0000      -6.578705      -179.0157
   5   2.0000      -1.147166       -31.2160
   6   2.0000      -1.101595       -29.9759
   7   2.0000      -0.974526       -26.5182
   8   2.0000      -0.541536       -14.7360
   9   2.0000      -0.493757       -13.4358
  10   2.0000      -0.491309       -13.3692
  11   2.0000      -0.490959       -13.3597
  12   2.0000      -0.466656       -12.6984
  13   2.0000      -0.421006       -11.4562
  14   2.0000      -0.350756        -9.5445
  15   2.0000      -0.334266        -9.0958
  16   2.0000      -0.332962        -9.0603
  17   2.0000      -0.266806        -7.2602
  18   2.0000      -0.203494        -5.5373
  19   2.0000      -0.199288        -5.4229
  20   2.0000      -0.197030        -5.3615
  21   0.0000       0.247432         6.7330
  22   0.0000       0.271569         7.3898
  23   0.0000       0.275745         7.5034
  24   0.0000       0.296861         8.0780
  25   0.0000       0.304974         8.2988

MULLIKEN ATOMIC CHARGES
-----------------------
   0 C :    0.426023
   1 O :   -0.251520
   2 O :   -0.231690
   3 B :   -0.454313
   4 H :   -0.123249
   5 H :   -0.123886
   6 H :   -0.130500
   7 H :   -0.115034
   8 O :   -0.655047
   9 H :    0.318876
  10 H :    0.340339
Sum of atomic charges:   -1.0000000

LOEWDIN ATOMIC CHARGES
----------------------
   0 C :   -0.434864
   1 O :    0.168540
   2 O :    0.182497
   3 B :   -0.956168
   4 H :    0.002901
   5 H :    0.006448
   6 H :    0.013381
   7 H :    0.009174
   8 O :   -0.298207
   9 H :    0.150161
  10 H :    0.156137

  Mayer bond orders larger than 0.100000
B(  0-C ,  1-O ) :   2.1494 B(  0-C ,  2-O ) :   2.1759 B(  1-O ,  2-O ) :   0.1839
B(  3-B ,  4-H ) :   0.9802 B(  3-B ,  5-H ) :   0.9815 B(  3-B ,  6-H ) :   0.9100
B(  3-B ,  7-H ) :   0.9681 B(  8-O ,  9-H ) :   0.9087 B(  8-O , 10-H ) :   0.8341

Dispersion correction           -0.009850030
FINAL SINGLE POINT ENERGY      -292.501144866185

DIPOLE MOMENT
-------------
                                X             Y             Z
Electronic contribution:      2.80710      -0.18602     -12.96012
Nuclear contribution   :     -2.55197      -0.13264       9.36795
                        -----------------------------------------
Total Dipole Moment    :      0.25512      -0.31866      -3.59217
                        -----------------------------------------
Magnitude (a.u.)       :      3.61529
Magnitude (Debye)      :      9.18933

Rotational constants in cm-1:     0.157071     0.079017     0.073627
Rotational constants in MHz :  4708.871016  2368.875597  2207.281379

                             ****ORCA TERMINATED NORMALLY****
TOTAL RUN TIME: 0 days 0 hours 0 minutes 33 seconds 964 msec
