                         Program Version 4.2.0 -  RELEASE  -
|  1> ! wB97X-D3BJ def2-TZVP SP Grid4 TightSCF
|  2>
|  3> %pal
|  4>     nprocs 4
|  5> end
|  6>
|  7> *xyz -1 1
|  8> C  1.208995 -0.056447  2.319079
|  9> O  0.097037 -0.742342  2.374182
| 10> O  2.038902 -0.132529  1.435260
| 11> B -0.542349 -0.041626  5.719692
| 12> H -0.575633 -1.229482  6.069369
| 13> H  0.640706  0.363733  5.678614
| 14> H -1.192228  0.666470  6.518487
| 15> H  1.341532  0.636241  3.191420
| 16> O -1.202160  0.053744  4.329507
| 17> H -0.465006 -0.449687  3.231394
| 18> H -1.366461  0.987555  4.156071
| 19> *
| 20>
| 21>                          ****END OF INPUT****

CARTESIAN COORDINATES (ANGSTROEM)
---------------------------------
  C      1.208995   -0.056447    2.319079
  O      0.097037   -0.742342    2.374182
  O      2.038902   -0.132529    1.435260
  B     -0.542349   -0.041626    5.719692
  H     -0.575633   -1.229482    6.069369
  H      0.640706    0.363733    5.678614
  H     -1.192228    0.666470    6.518487
  H      1.341532    0.636241    3.191420
  O     -1.202160    0.053744    4.329507
  H     -0.465006   -0.449687    3.231394
  H     -1.366461    0.987555    4.156071

 Total Charge           Charge          ....   -1
 Multiplicity           Mult            ....    1
 Number of Electrons    NEL             ....   42
 Basis Dimension        Dim             ....  191

ORBITAL ENERGIES
----------------

  NO   OCC          E(Eh)            E(eV)
   0   2.0000     -19.078001      -519.1388
   1   2.0000     -19.044400      -518.2245
   2   2.0000     -19.044188      -518.2187
   3   2.0000     -10.244171      -278.7581
   4   2.0000      -6.630242      -180.4181
   5   2.0000      -1.066215       -29.0132
   6   2.0000      -0.987187       -26.8627
   7   2.0000      -0.953962       -25.9586
   8   2.0000      -0.574502       -15.6330
   9   2.0000      -0.529830       -14.4174
  10   2.0000      -0.473834       -12.8937
  11   2.0000      -0.414229       -11.2718
  12   2.0000      -0.400295       -10.8926
  13   2.0000      -0.399652       -10.8751
  14   2.0000      -0.345286        -9.3957
  15   2.0000      -0.297762        -8.1025
  16   2.0000      -0.282396        -7.6844
  17   2.0000      -0.264809        -7.2058
  18   2.0000      -0.232516        -6.3271
  19   2.0000      -0.208211        -5.6657
  20   2.0000      -0.185809        -5.0561
  21   0.0000       0.244397         6.6504
  22   0.0000       0.259126         7.0512
  23   0.0000       0.286314         7.7910
  24   0.0000       0.309327         8.4172
  25   0.0000       0.320095         8.7102

MULLIKEN ATOMIC CHARGES
-----------------------
   0 C :    0.187246
   1 O :   -0.382909
   2 O :   -0.398273
   3 B :   -0.107001
   4 H :   -0.127859
   5 H :   -0.138476
   6 H :   -0.141272
   7 H :    0.058383
   8 O :   -0.617574
   9 H :    0.369887
  10 H :    0.297847
Sum of atomic charges:   -1.0000000

LOEWDIN ATOMIC CHARGES
----------------------
   0 C :   -0.530561
   1 O :    0.052862
   2 O :   -0.006760
   3 B :   -0.905331
   4 H :    0.007395
   5 H :   -0.004679
   6 H :   -0.000184
   7 H :    0.091924
   8 O :   -0.028411
   9 H :    0.159142
  10 H :    0.164603

  Mayer bond orders larger than 0.100000
B(  0-C ,  1-O ) :   1.3248 B(  0-C ,  2-O ) :   2.0419 B(  0-C ,  7-H ) :   0.9709
B(  1-O ,  9-H ) :   0.6517 B(  3-B ,  4-H ) :   0.9817 B(  3-B ,  5-H ) :   0.9878
B(  3-B ,  6-H ) :   0.9837 B(  3-B ,  8-O ) :   0.7114 B(  8-O ,  9-H ) :   0.2894
B(  8-O , 10-H ) :   0.9142

Dispersion correction           -0.009910572
FINAL SINGLE POINT ENERGY      -292.527907240520

DIPOLE MOMENT
-------------
                                X             Y             Z
Electronic contribution:      2.48911      -1.08049      -8.62191
Nuclear contribution   :     -2.49868       1.78363       6.93039
                        -----------------------------------------
Total Dipole Moment    :     -0.00957       0.70314      -1.69152
                        -----------------------------------------
Magnitude (a.u.)       :      1.83187
Magnitude (Debye)      :      4.65624

Rotational constants in cm-1:     0.451504     0.060842     0.056481
Rotational constants in MHz : 13535.756596  1823.992611  1693.269672

                             ****ORCA TERMINATED NORMALLY****
TOTAL RUN TIME: 0 days 0 hours 0 minutes 31 seconds 422 msec
