                         Program Version 4.2.0 -  RELEASE  -
|  1> ! wB97X-D3BJ def2-TZVP SP Grid4 TightSCF
|  2>
|  3> %pal
|  4>     nprocs 4
|  5> end
|  6>
|  7> *xyz -1 1
|  8> C  1.090336  0.071690  2.651560
|  9> O  0.141258 -0.444662  2.000159
| 10> O  2.209629  0.437665  2.295140
| 11> B  0.044227  0.147203  5.808910
| 12> H -0.469852 -0.853111  6.239891
| 13> H  1.248869  0.238592  5.802636
| 14> H -0.607371  1.163798  5.716650
| 15> H  0.844574  0.216901  3.779219
| 16> O -1.673959 -0.617949  3.834059
| 17> H -1.009273 -0.661898  3.067365
| 18> H -1.830463  0.333647  3.888137
| 19> *
| 20>
| 21>                          ****END OF INPUT****

CARTESIAN COORDINATES (ANGSTROEM)
---------------------------------
  C      1.090336    0.071690    2.651560
  O      0.141258   -0.444662    2.000159
  O      2.209629    0.437665    2.295140
  B      0.044227    0.147203    5.808910
  H     -0.469852   -0.853111    6.239891
  H      1.248869    0.238592    5.802636
  H     -0.607371    1.163798    5.716650
  H      0.844574    0.216901    3.779219
  O     -1.673959   -0.617949    3.834059
  H     -1.009273   -0.661898    3.067365
  H     -1.830463    0.333647    3.888137

 Total Charge           Charge          ....   -1
 Multiplicity           Mult            ....    1
 Number of Electrons    NEL             ....   42
 Basis Dimension        Dim             ....  191

ORBITAL ENERGIES
----------------

  NO   OCC          E(Eh)            E(eV)
   0   2.0000     -19.036382      -518.0063
   1   2.0000     -18.992883      -516.8226
   2   2.0000     -18.985927      -516.6334
   3   2.0000     -10.188375      -277.2398
   4   2.0000      -6.725767      -183.0174
   5   2.0000      -0.993044       -27.0221
   6   2.0000      -0.957772       -26.0623
   7   2.0000      -0.906525       -24.6678
   8   2.0000      -0.513202       -13.9649
   9   2.0000      -0.477423       -12.9913
  10   2.0000      -0.465791       -12.6748
  11   2.0000      -0.392874       -10.6906
  12   2.0000      -0.353612        -9.6223
  13   2.0000      -0.342322        -9.3150
  14   2.0000      -0.330287        -8.9876
  15   2.0000      -0.317706        -8.6452
  16   2.0000      -0.312883        -8.5140
  17   2.0000      -0.252320        -6.8660
  18   2.0000      -0.194820        -5.3013
  19   2.0000      -0.188617        -5.1325
  20   2.0000      -0.171257        -4.6601
  21   0.0000       0.162206         4.4139
  22   0.0000       0.252449         6.8695
  23   0.0000       0.275078         7.4852
  24   0.0000       0.282708         7.6929
  25   0.0000       0.303662         8.2631

MULLIKEN ATOMIC CHARGES
-----------------------
   0 C :    0.205467
   1 O :   -0.511476
   2 O :   -0.466242
   3 B :   -0.122555
   4 H :   -0.002781
   5 H :    0.020212
   6 H :   -0.031077
   7 H :   -0.064755
   8 O :   -0.673184
   9 H :    0.362435
  10 H :    0.283955
Sum of atomic charges:   -1.0000000

LOEWDIN ATOMIC CHARGES
----------------------
   0 C :   -0.652219
   1 O :   -0.112208
   2 O :   -0.075072
   3 B :   -0.308709
   4 H :    0.028198
   5 H :    0.032789
   6 H :    0.023834
   7 H :    0.095360
   8 O :   -0.305651
   9 H :    0.138791
  10 H :    0.134886

  Mayer bond orders larger than 0.100000
B(  0-C ,  1-O ) :   1.6218 B(  0-C ,  2-O ) :   1.9388 B(  0-C ,  7-H ) :   0.9030
B(  1-O ,  9-H ) :   0.2077 B(  3-B ,  4-H ) :   0.9882 B(  3-B ,  5-H ) :   0.9982
B(  3-B ,  6-H ) :   0.9955 B(  3-B ,  8-O ) :   0.1482 B(  8-O ,  9-H ) :   0.7449
B(  8-O , 10-H ) :   0.9269

Dispersion correction           -0.010066473
FINAL SINGLE POINT ENERGY      -292.467861670037

DIPOLE MOMENT
-------------
                                X             Y             Z
Electronic contribution:      2.49295      -0.35234      -5.44002
Nuclear contribution   :     -3.17786       0.74485       6.24838
                        -----------------------------------------
Total Dipole Moment    :     -0.68491       0.39250       0.80836
                        -----------------------------------------
Magnitude (a.u.)       :      1.12987
Magnitude (Debye)      :      2.87190

Rotational constants in cm-1:     0.183114     0.081559     0.057740
Rotational constants in MHz :  5489.617430  2445.071520  1731.004562

                             ****ORCA TERMINATED NORMALLY****
TOTAL RUN TIME: 0 days 0 hours 0 minutes 39 seconds 98 msec
